title DL_POLY_4 CONTROL DIRECTIVES

# I/O REDIRECT
io_file_output my-dl_poly-run
io_file_field FIELD-dl_field.out
io_file_config CONFIG-CDS-generated
io_file_history new-trajectory
io_file_revive REVIVE-2ps-run
io_file_revcon REVCON-100k-output
io_file_revold REVIVE-1ps-run

# SYSTEM REPLICATION & IMPACT OPTION
nfold [ 10 10 10 ]
impact_part_index 1
impact_time  2000.0 steps
impact_energy  7.5 ke.V
impact_direction [  1.0  2.0  3.0 ]

# DENSITY VARIATION ARRAY BOOST
density_variance  10.0 %

# INDEX AND VERIFICATION BYPASS AND NO TOPOLOGY REPORTING
ignore_config_indices ON
strict_checks OFF
print_topology_info OFF

# INTERACTIONS BYPASS
vdw_method OFF
coul_method OFF

# APPLY MIXING TO ALLOWED & AVAILABLE VDW CROSS INTERACTIONS
vdw_mix_method Lorentz-Berthelot

# DIRECT CALCULATION OF VDW/METAL INTERACTIONS INSTEAD OF
# EVALUATION BY SPLINING OVER TABULATED VALUES IN MEMORY
vdw_method direct
metal_direct ON

# FORCE-SHIFT VDW INTERACTIONS SO THAT ENERGY AND FORCE
# CONTRIBUTIONS FALL SMOOTHLY TO ZERO WHEN APPROACHING R_CUT
vdw_force_shift ON

# RANDOM NUMBER GENERATOR SEEDING
random_seed [  100  200  300 ]

# RESTART OPTIONS
restart noscale
data_dump_frequency  1000 steps

# SYSTEM TARGET TEMPERATURE AND PRESSURE
pressure_hydrostatic  0.001 katm
temperature  300.0 K

# SYSTEM CUTOFFS AND ELECTROSTATICS
vdw_cutoff  8.0 ang
padding  0.35 ang
cutoff  10.0 ang
subcelling_threshold_density   50.0 %
coul_extended_exclusion ON
coul_dielectric_constant 1.0
coul_method ewald
ewald_precision 1e-05

# RELAXED SHELL MODEL TOLERANCE
rlx_tol  1.0

# CONSTRANTS ITERATION LENGTH and TOLERANCE
shake_max_iter 250
shake_tolerance  1e-05 ang

# INTEGRATION FLAVOUR, ENSEMBLE AND PSEUDO THERMOSTAT
ensemble nst
ensemble_method berendsen
ensemble_thermostat_coupling  0.5 ps
ensemble_barostat_coupling  1.5 ps
pseudo_thermostat_method langevin
pseudo_thermostat_width  2.0 ang
pseudo_thermostat_temperature  150.0 K

# INTEGRATION TIMESTEP
timestep  0.001 ps
timestep_variable ON
timestep_variable_min_dist  0.03 ang
timestep_variable_max_dist  0.1 ang
timestep_variable_max_delta  0.005 ps

# SIMULATION & EQUILIBRATION LENGTH
time_run  10000.0 steps
time_equilibration  1000.0 steps

# EQUILIBRATION DIRECTIVES
reset_temperature_interval  1.0 steps
equilibration_force_cap  500.0 k_B.temp/ang
rescale_frequency  5.0 steps
regauss_frequency 3.0 steps
minimisation_criterion energy
minimisation_tolerance  0.001 internal_e
minimisation_frequency  20.0 steps
minimisation_step_length  1e-05 ang

# STATISTICS
record_equilibration ON
stack_size  50.0 steps
stats_frequency  10.0 steps

# OUTPUT
print_frequency  20.0 steps

# HISTORY
traj_calculate ON
traj_start  20.0 steps
traj_interval  30.0 steps
traj_key pos

# DEFECTS TRAJECTORY - DEFECTS
defects_calculate ON
defects_start  40.0 steps
defects_interval  15.0 steps
defects_distance  0.75 ang

# DISPLACEMENTS TRAJECTORY - RSDDAT
displacements_calculate ON
displacements_start  70.0 steps
displacements_interval  10.0 steps
displacements_distance  0.25 ang

# MSDTMP
msd_calculate ON
msd_start  1000.0 steps
msd_frequency  100.0 steps

# INTRAMOLECULAR PDF ANALYSIS BY TYPE IF PRESENT
analyse_bonds ON
analyse_frequency_bonds 100 steps
analyse_num_bins_bonds 250

analyse_angles ON
analyse_frequency_angles 100 steps
analyse_num_bins_angles 360

analyse_dihedrals ON
analyse_frequency_dihedrals 100 steps
analyse_num_bins_dihedrals 720

analyse_inversions ON
analyse_frequency_inversions 100 steps
analyse_num_bins_inversions 360

analyse_all ON
analyse_frequency 100 steps
analyse_num_bins 1000
analyse_max_dist 5.0 ang


# RDF & Z-DENSITY
rdf_print ON
rdf_calculate ON
rdf_frequency  7.0 steps
rdf_binsize 0.05
zden_print ON
zden_calculate ON
zden_frequency  7.0 steps
zden_binsize 0.05

# EMPIRICAL VALENCE BOND (EVB) DIRECTIVE
evb 2

# EXECUTION TIME
time_job  1000.0 s
time_close  10.0 s
