easyblock = 'CMakeMake'
name =  "DL_POLY_4"
version = "5.0.0"
homepage = "https://www.scd.stfc.ac.uk/Pages/DL_POLY.aspx"
description = "classical md"

toolchain = {'name':'foss','version':'2020b'}

sources = [{'filename': 'dl_poly_%(version)s.tar.bz2',
'source_urls':['https://gitlab.com/ccp5/dl-poly/-/archive/%(version)s/'],
'extract_cmd':'tar -xvf %s'
}]

sanity_check_paths = {
    'files': ['bin/DLPOLY.Z'],
    'dirs':[]
}

moduleclass = 'chem'
