easyblock = 'CMakeMake'
name =  "DL_POLY_4"
version = "4.10.0"
homepage = "https://www.scd.stfc.ac.uk/Pages/DL_POLY.aspx"
description = "classical md"

toolchain = {'name':'intel','version':'2020a'}

sources = [{'filename': 'dl_poly_%(version)s.tar.gz',
'source_urls':['https://www.ccp5.ac.uk/sites/www.ccp5.ac.uk/files/DL_POLY/4.10/'],
'extract_cmd':'tar -xvf %s'
}]

sanity_check_paths = {
    'files': ['bin/DLPOLY.Z'],
    'dirs':[]
}

moduleclass = 'chem'
